      4
 i =        0, time =        0.000, E =       0
1        0.997500000      0.945100000     -0.134600000
7        0.621800000      0.000000000      0.000000000
7       -0.621800000      0.000000000      0.000000000
1       -1.387860734      0.918647338      0.259181652